Program Version,EnergyPlus, Version 24.1.0-9d7789a3ac, YMD=2024.12.12 11:20
1,5,Environment Title[],Latitude[deg],Longitude[deg],Time Zone[],Elevation[m]
2,8,Day of Simulation[],Month[],Day of Month[],DST Indicator[1=yes 0=no],Hour[],StartMinute[],EndMinute[],DayType
3,5,Cumulative Day of Simulation[],Month[],Day of Month[],DST Indicator[1=yes 0=no],DayType  ! When Daily Report Variables Requested
4,2,Cumulative Days of Simulation[],Month[]  ! When Monthly Report Variables Requested
5,1,Cumulative Days of Simulation[] ! When Run Period Report Variables Requested
6,1,Calendar Year of Simulation[] ! When Annual Report Variables Requested
7,1,Environment,Site Outdoor Air Drybulb Temperature [C] !Hourly
8,1,Environment,Site Diffuse Solar Radiation Rate per Area [W/m2] !Hourly
9,1,Environment,Site Direct Solar Radiation Rate per Area [W/m2] !Hourly
10,1,THERMAL ZONE 1,Zone People Occupant Count [] !Hourly
12,1,THERMAL ZONE 1,Zone Mean Air Temperature [C] !Hourly
148,1,THERMAL ZONE 1,Zone Thermostat Cooling Setpoint Temperature [C] !Hourly
149,1,THERMAL ZONE 1,Zone Thermal Comfort ASHRAE 55 Simple Model Summer Clothes Not Comfortable Time [hr] !Hourly
248,1,THERMAL ZONE 1 IDEAL LOADS AIR SYSTEM,Zone Ideal Loads Zone Total Cooling Rate [W] !Hourly
End of Data Dictionary
1,RUN PERIOD 1,  47.08,  15.45,   1.00, 378.80
2,1, 7, 1, 0, 1, 0.00,60.00,Friday
7,21.133333333333333
8,0.0
9,0.0
10,0.0
12,23.283485390828236
148,26.0
149,0.0
248,0.0
2,1, 7, 1, 0, 2, 0.00,60.00,Friday
7,19.241666666666667
8,0.0
9,0.0
10,0.0
12,23.059830731010504
148,26.0
149,0.0
248,0.0
2,1, 7, 1, 0, 3, 0.00,60.00,Friday
7,19.258333333333333
8,0.0
9,0.0
10,0.0
12,22.857049914558548
148,26.0
149,0.0
248,0.0
2,1, 7, 1, 0, 4, 0.00,60.00,Friday
7,19.416666666666668
8,0.0
9,0.0
10,0.0
12,22.657888811297042
148,26.0
149,0.0
248,0.0
2,1, 7, 1, 0, 5, 0.00,60.00,Friday
7,19.850000000000005
8,6.999999999999999
9,5.666666666666667
10,0.0
12,22.46312566349788
148,26.0
149,0.0
248,0.0
2,1, 7, 1, 0, 6, 0.00,60.00,Friday
7,20.625
8,45.666666666666664
9,26.666666666666668
10,0.0
12,22.32613018825316
148,26.0
149,0.0
248,0.0
2,1, 7, 1, 0, 7, 0.00,60.00,Friday
7,20.416666666666668
8,95.75
9,10.583333333333334
10,0.0
12,22.23356414635506
148,26.0
149,0.0
248,0.0
2,1, 7, 1, 0, 8, 0.00,60.00,Friday
7,20.816666666666666
8,178.33333333333334
9,15.333333333333334
10,0.0
12,22.202422132945454
148,26.0
149,0.0
248,0.0
2,1, 7, 1, 0, 9, 0.00,60.00,Friday
7,22.333333333333332
8,263.4166666666667
9,21.0
10,0.0
12,20.881901756875923
148,21.0
149,0.0
248,275.2958321395724
2,1, 7, 1, 0,10, 0.00,60.00,Friday
7,23.758333333333336
8,343.8333333333333
9,29.416666666666668
10,0.0
12,20.999999997168118
148,21.0
149,0.0
248,241.52612514973393
2,1, 7, 1, 0,11, 0.00,60.00,Friday
7,24.825
8,429.4166666666667
9,76.0
10,0.0
12,21.473740359341658
148,21.5
149,0.0
248,140.60324620944442
2,1, 7, 1, 0,12, 0.00,60.00,Friday
7,25.724999999999998
8,451.0833333333333
9,212.41666666666666
10,3.0
12,21.499999999998565
148,21.5
149,0.9999999999999999
248,207.98253010754453
2,1, 7, 1, 0,13, 0.00,60.00,Friday
7,27.675
8,376.5
9,413.9166666666667
10,3.0
12,19.98805304663018
148,20.0
149,0.9999999999999999
248,594.6591281957702
2,1, 7, 1, 0,14, 0.00,60.00,Friday
7,29.325
8,323.3333333333333
9,503.25
10,3.0
12,19.999999999996906
148,20.0
149,0.9999999999999999
248,506.7992560537538
2,1, 7, 1, 0,15, 0.00,60.00,Friday
7,30.400000000000002
8,249.0
9,604.0833333333334
10,3.0
12,20.0
148,20.0
149,0.9999999999999999
248,491.45122721988645
2,1, 7, 1, 0,16, 0.00,60.00,Friday
7,31.25
8,176.08333333333334
9,690.9166666666666
10,3.0
12,19.999999999999996
148,20.0
149,0.9999999999999999
248,497.523775228917
2,1, 7, 1, 0,17, 0.00,60.00,Friday
7,31.325
8,174.58333333333334
9,580.5
10,3.0
12,20.0
148,20.0
149,0.9999999999999999
248,569.8659467780412
2,1, 7, 1, 0,18, 0.00,60.00,Friday
7,31.083333333333332
8,164.33333333333334
9,432.6666666666667
10,0.0
12,20.0
148,20.0
149,0.0
248,665.8453894273771
2,1, 7, 1, 0,19, 0.00,60.00,Friday
7,31.0
8,119.0
9,307.25000000000006
10,0.0
12,22.235822471056164
148,25.0
149,0.0
248,0.0
2,1, 7, 1, 0,20, 0.00,60.00,Friday
7,30.766666666666666
8,58.083333333333336
9,93.66666666666667
10,0.0
12,23.762760477845816
148,25.0
149,0.0
248,0.0
2,1, 7, 1, 0,21, 0.00,60.00,Friday
7,29.258333333333336
8,0.0
9,0.0
10,0.0
12,23.707966930534397
148,25.0
149,0.0
248,0.0
2,1, 7, 1, 0,22, 0.00,60.00,Friday
7,26.78333333333333
8,0.0
9,0.0
10,0.0
12,23.627055818297137
148,25.0
149,0.0
248,0.0
2,1, 7, 1, 0,23, 0.00,60.00,Friday
7,25.058333333333334
8,0.0
9,0.0
10,0.0
12,23.561886939063328
148,25.0
149,0.0
248,0.0
2,1, 7, 1, 0,24, 0.00,60.00,Friday
7,24.075
8,0.0
9,0.0
10,0.0
12,23.47886439007309
148,25.0
149,0.0
248,0.0
2,2, 7, 2, 0, 1, 0.00,60.00,Saturday
7,23.583333333333332
8,0.0
9,0.0
10,0.0
12,21.864537667698595
148,22.0
149,0.0
248,293.9142002062538
2,2, 7, 2, 0, 2, 0.00,60.00,Saturday
7,23.150000000000002
8,0.0
9,0.0
10,0.0
12,21.99999999838241
148,22.0
149,0.0
248,180.00919487666792
2,2, 7, 2, 0, 3, 0.00,60.00,Saturday
7,22.666666666666668
8,0.0
9,0.0
10,0.0
12,22.0
148,22.0
149,0.0
248,127.24282644619336
2,2, 7, 2, 0, 4, 0.00,60.00,Saturday
7,22.38333333333334
8,0.0
9,0.0
10,0.0
12,22.0
148,22.0
149,0.0
248,88.54492226919093
2,2, 7, 2, 0, 5, 0.00,60.00,Saturday
7,22.24166666666667
8,4.499999999999999
9,39.166666666666664
10,0.0
12,22.0
148,22.0
149,0.0
248,60.073705620885626
2,2, 7, 2, 0, 6, 0.00,60.00,Saturday
7,22.025000000000002
8,31.75
9,268.0833333333333
10,0.0
12,22.0
148,22.0
149,0.0
248,52.19364114861842
2,2, 7, 2, 0, 7, 0.00,60.00,Saturday
7,22.600000000000005
8,70.33333333333333
9,540.1666666666666
10,0.0
12,22.0
148,22.0
149,0.0
248,50.94971679041424
2,2, 7, 2, 0, 8, 0.00,60.00,Saturday
7,24.5
8,98.58333333333333
9,650.4166666666666
10,0.0
12,22.0
148,22.0
149,0.0
248,74.26891725131334
2,2, 7, 2, 0, 9, 0.00,60.00,Saturday
7,27.775000000000002
8,119.0
9,725.5833333333334
10,0.0
12,22.0
148,22.0
149,0.0
248,116.83954082379007
2,2, 7, 2, 0,10, 0.00,60.00,Saturday
7,31.09166666666667
8,150.25
9,738.3333333333334
10,0.0
12,22.0
148,22.0
149,0.0
248,168.69995662450776
2,2, 7, 2, 0,11, 0.00,60.00,Saturday
7,31.775000000000002
8,217.58333333333334
9,656.0833333333334
10,0.0
12,22.0
148,22.0
149,0.0
248,210.70010010984126
2,2, 7, 2, 0,12, 0.00,60.00,Saturday
7,32.916666666666664
8,348.6666666666667
9,442.8333333333333
10,0.0
12,22.0
148,22.0
149,0.0
248,266.1413546876244
2,2, 7, 2, 0,13, 0.00,60.00,Saturday
7,34.23333333333334
8,475.25
9,184.75
10,0.0
12,22.0
148,22.0
149,0.0
248,337.00695901558515
2,2, 7, 2, 0,14, 0.00,60.00,Saturday
7,35.041666666666664
8,473.0833333333333
9,62.333333333333336
10,0.0
12,22.0
148,22.0
149,0.0
248,391.7879624860563
2,2, 7, 2, 0,15, 0.00,60.00,Saturday
7,35.73333333333334
8,410.0
9,28.166666666666668
10,0.0
12,22.0
148,22.0
149,0.0
248,429.4864736262006
2,2, 7, 2, 0,16, 0.00,60.00,Saturday
7,35.84166666666667
8,342.3333333333333
9,20.5
10,0.0
12,22.0
148,22.0
149,0.0
248,452.89836091146213
2,2, 7, 2, 0,17, 0.00,60.00,Saturday
7,35.391666666666666
8,282.4166666666667
9,25.083333333333332
10,0.0
12,22.0
148,22.0
149,0.0
248,473.3527935750017
2,2, 7, 2, 0,18, 0.00,60.00,Saturday
7,34.458333333333336
8,211.66666666666666
9,30.25
10,0.0
12,22.0
148,22.0
149,0.0
248,487.467438158746
2,2, 7, 2, 0,19, 0.00,60.00,Saturday
7,31.433333333333334
8,124.5
9,19.5
10,0.0
12,22.0
148,22.0
149,0.0
248,474.6269456113113
2,2, 7, 2, 0,20, 0.00,60.00,Saturday
7,26.333333333333332
8,42.833333333333336
9,5.75
10,0.0
12,22.0
148,22.0
149,0.0
248,422.2426555996794
2,2, 7, 2, 0,21, 0.00,60.00,Saturday
7,24.116666666666664
8,0.0
9,0.0
10,0.0
12,22.0
148,22.0
149,0.0
248,328.03173966703616
2,2, 7, 2, 0,22, 0.00,60.00,Saturday
7,24.200000000000003
8,0.0
9,0.0
10,0.0
12,22.0
148,22.0
149,0.0
248,295.4281759046024
2,2, 7, 2, 0,23, 0.00,60.00,Saturday
7,24.083333333333332
8,0.0
9,0.0
10,0.0
12,22.0
148,22.0
149,0.0
248,271.8959706375402
2,2, 7, 2, 0,24, 0.00,60.00,Saturday
7,24.058333333333334
8,0.0
9,0.0
10,0.0
12,22.0
148,22.0
149,0.0
248,246.2831681826212
2,3, 7, 3, 0, 1, 0.00,60.00,Sunday
7,23.633333333333336
8,0.0
9,0.0
10,0.0
12,22.0
148,22.0
149,0.0
248,214.94823510585448
2,3, 7, 3, 0, 2, 0.00,60.00,Sunday
7,23.125
8,0.0
9,0.0
10,0.0
12,22.0
148,22.0
149,0.0
248,180.1662269344857
2,3, 7, 3, 0, 3, 0.00,60.00,Sunday
7,22.766666666666666
8,0.0
9,0.0
10,0.0
12,22.0
148,22.0
149,0.0
248,146.12999542271044
2,3, 7, 3, 0, 4, 0.00,60.00,Sunday
7,22.308333333333337
8,0.0
9,0.0
10,0.0
12,22.0
148,22.0
149,0.0
248,112.92536558718409
2,3, 7, 3, 0, 5, 0.00,60.00,Sunday
7,21.808333333333337
8,6.999999999999999
9,31.499999999999996
10,0.0
12,22.0
148,22.0
149,0.0
248,86.18852905176603
2,3, 7, 3, 0, 6, 0.00,60.00,Sunday
7,21.36666666666667
8,49.833333333333336
9,184.58333333333334
10,0.0
12,22.0
148,22.0
149,0.0
248,79.9450005606083
2,3, 7, 3, 0, 7, 0.00,60.00,Sunday
7,22.016666666666666
8,102.83333333333333
9,313.3333333333333
10,0.0
12,22.0
148,22.0
149,0.0
248,80.21405096098079
2,3, 7, 3, 0, 8, 0.00,60.00,Sunday
7,24.116666666666664
8,107.08333333333333
9,623.1666666666666
10,0.0
12,22.0
148,22.0
149,0.0
248,103.49557633828984
2,3, 7, 3, 0, 9, 0.00,60.00,Sunday
7,27.416666666666668
8,135.16666666666666
9,774.5833333333334
10,0.0
12,22.0
148,22.0
149,0.0
248,151.27157060149784
2,3, 7, 3, 0,10, 0.00,60.00,Sunday
7,30.866666666666674
8,162.58333333333334
9,824.75
10,0.0
12,22.0
148,22.0
149,0.0
248,208.2093859672792
2,3, 7, 3, 0,11, 0.00,60.00,Sunday
7,33.25
8,172.33333333333334
9,856.0
10,0.0
12,22.0
148,22.0
149,0.0
248,256.5790606003056
2,3, 7, 3, 0,12, 0.00,60.00,Sunday
7,34.583333333333336
8,163.08333333333334
9,839.6666666666666
10,0.0
12,22.0
148,22.0
149,0.0
248,292.0534028097314
2,3, 7, 3, 0,13, 0.00,60.00,Sunday
7,35.46666666666667
8,259.6666666666667
9,636.75
10,0.0
12,22.0
148,22.0
149,0.0
248,338.0064737638548
2,3, 7, 3, 0,14, 0.00,60.00,Sunday
7,36.208333333333336
8,378.0833333333333
9,393.8333333333333
10,0.0
12,22.0
148,22.0
149,0.0
248,400.35267030660015
2,3, 7, 3, 0,15, 0.00,60.00,Sunday
7,35.50833333333333
8,406.6666666666667
9,267.99999999999994
10,0.0
12,22.0
148,22.0
149,0.0
248,449.99930297867377
2,3, 7, 3, 0,16, 0.00,60.00,Sunday
7,30.891666666666666
8,364.0833333333333
9,223.0
10,0.0
12,22.0
148,22.0
149,0.0
248,459.3981111367996
2,3, 7, 3, 0,17, 0.00,60.00,Sunday
7,28.275000000000002
8,305.0833333333333
9,85.83333333333333
10,0.0
12,22.0
148,22.0
149,0.0
248,474.7587526196683
2,3, 7, 3, 0,18, 0.00,60.00,Sunday
7,29.15833333333333
8,189.08333333333334
9,18.166666666666664
10,0.0
12,22.0
148,22.0
149,0.0
248,476.33425638553564
2,3, 7, 3, 0,19, 0.00,60.00,Sunday
7,29.583333333333332
8,116.75
9,13.416666666666666
10,0.0
12,22.0
148,22.0
149,0.0
248,479.06452007677507
2,3, 7, 3, 0,20, 0.00,60.00,Sunday
7,30.083333333333332
8,49.0
9,11.916666666666666
10,0.0
12,22.0
148,22.0
149,0.0
248,494.18762465048627
2,3, 7, 3, 0,21, 0.00,60.00,Sunday
7,29.333333333333332
8,0.0
9,0.0
10,0.0
12,22.0
148,22.0
149,0.0
248,411.35167445246515
2,3, 7, 3, 0,22, 0.00,60.00,Sunday
7,28.150000000000002
8,0.0
9,0.0
10,0.0
12,22.0
148,22.0
149,0.0
248,364.9602234063314
2,3, 7, 3, 0,23, 0.00,60.00,Sunday
7,27.78333333333333
8,0.0
9,0.0
10,0.0
12,22.0
148,22.0
149,0.0
248,332.6124229803589
2,3, 7, 3, 0,24, 0.00,60.00,Sunday
7,27.875
8,0.0
9,0.0
10,0.0
12,22.0
148,22.0
149,0.0
248,308.25234519875295
2,4, 7, 4, 0, 1, 0.00,60.00,Monday
7,27.066666666666666
8,0.0
9,0.0
10,0.0
12,23.03415856716715
148,26.0
149,0.0
248,0.0
2,4, 7, 4, 0, 2, 0.00,60.00,Monday
7,25.816666666666666
8,0.0
9,0.0
10,0.0
12,23.3196251975299
148,26.0
149,0.0
248,0.0
2,4, 7, 4, 0, 3, 0.00,60.00,Monday
7,25.63333333333333
8,0.0
9,0.0
10,0.0
12,23.329343985845274
148,26.0
149,0.0
248,0.0
2,4, 7, 4, 0, 4, 0.00,60.00,Monday
7,25.858333333333334
8,0.0
9,0.0
10,0.0
12,23.2684059525576
148,26.0
149,0.0
248,0.0
2,4, 7, 4, 0, 5, 0.00,60.00,Monday
7,25.900000000000002
8,3.1666666666666665
9,0.16666666666666666
10,0.0
12,23.15988010417496
148,26.0
149,0.0
248,0.0
2,4, 7, 4, 0, 6, 0.00,60.00,Monday
7,24.5
8,21.583333333333332
9,0.9166666666666666
10,0.0
12,23.02228086364052
148,26.0
149,0.0
248,0.0
2,4, 7, 4, 0, 7, 0.00,60.00,Monday
7,23.09166666666667
8,45.75
9,0.8333333333333334
10,0.0
12,22.873695405697873
148,26.0
149,0.0
248,0.0
2,4, 7, 4, 0, 8, 0.00,60.00,Monday
7,22.916666666666668
8,72.24999999999999
9,0.24999999999999997
10,0.0
12,22.755002064003353
148,26.0
149,0.0
248,0.0
2,4, 7, 4, 0, 9, 0.00,60.00,Monday
7,22.941666666666666
8,125.91666666666667
9,1.25
10,0.0
12,20.8551005752464
148,21.0
149,0.0
248,366.31687069837994
2,4, 7, 4, 0,10, 0.00,60.00,Monday
7,23.541666666666668
8,229.08333333333334
9,3.1666666666666665
10,0.0
12,20.999999989464982
148,21.0
149,0.0
248,287.6095793664928
2,4, 7, 4, 0,11, 0.00,60.00,Monday
7,24.116666666666664
8,301.9166666666667
9,5.166666666666667
10,0.0
12,21.47741383550914
148,21.5
149,0.0
248,164.31398801359074
2,4, 7, 4, 0,12, 0.00,60.00,Monday
7,24.200000000000003
8,369.9166666666667
9,11.0
10,3.0
12,21.499999999999776
148,21.5
149,0.9999999999999999
248,217.6865097775562
2,4, 7, 4, 0,13, 0.00,60.00,Monday
7,24.55
8,460.0833333333333
9,42.083333333333336
10,3.0
12,19.989029925181516
148,20.0
149,0.9999999999999999
248,622.4043411960904
2,4, 7, 4, 0,14, 0.00,60.00,Monday
7,25.149999999999995
8,475.1666666666667
9,132.91666666666666
10,3.0
12,19.99999999999378
148,20.0
149,0.9999999999999999
248,540.2392333384604
2,4, 7, 4, 0,15, 0.00,60.00,Monday
7,25.866666666666664
8,382.3333333333333
9,322.8333333333333
10,3.0
12,20.0
148,20.0
149,0.9999999999999999
248,515.797864285223
2,4, 7, 4, 0,16, 0.00,60.00,Monday
7,26.724999999999998
8,268.25
9,475.9166666666667
10,3.0
12,20.0
148,20.0
149,0.9999999999999999
248,499.72147643925763
2,4, 7, 4, 0,17, 0.00,60.00,Monday
7,27.683333333333334
8,221.66666666666666
9,446.1666666666667
10,3.0
12,20.0
148,20.0
149,0.9999999999999999
248,538.6355919260176
2,4, 7, 4, 0,18, 0.00,60.00,Monday
7,28.39166666666667
8,202.41666666666666
9,271.75
10,0.0
12,20.0
148,20.0
149,0.0
248,594.4978275630403
2,4, 7, 4, 0,19, 0.00,60.00,Monday
7,28.65833333333333
8,142.41666666666666
9,137.41666666666666
10,0.0
12,22.166776525667117
148,25.0
149,0.0
248,0.0
2,4, 7, 4, 0,20, 0.00,60.00,Monday
7,28.933333333333334
8,59.666666666666664
9,61.666666666666664
10,0.0
12,23.446899175229248
148,25.0
149,0.0
248,0.0
2,4, 7, 4, 0,21, 0.00,60.00,Monday
7,27.641666666666666
8,0.0
9,0.0
10,0.0
12,23.378844975080796
148,25.0
149,0.0
248,0.0
2,4, 7, 4, 0,22, 0.00,60.00,Monday
7,25.083333333333332
8,0.0
9,0.0
10,0.0
12,23.233070682547716
148,25.0
149,0.0
248,0.0
2,4, 7, 4, 0,23, 0.00,60.00,Monday
7,22.891666666666666
8,0.0
9,0.0
10,0.0
12,23.12776656387746
148,25.0
149,0.0
248,0.0
2,4, 7, 4, 0,24, 0.00,60.00,Monday
7,21.34166666666667
8,0.0
9,0.0
10,0.0
12,23.004134852075108
148,25.0
149,0.0
248,0.0
2,5, 7, 5, 0, 1, 0.00,60.00,Tuesday
7,20.333333333333332
8,0.0
9,0.0
10,0.0
12,22.855310073155795
148,26.0
149,0.0
248,0.0
2,5, 7, 5, 0, 2, 0.00,60.00,Tuesday
7,20.291666666666668
8,0.0
9,0.0
10,0.0
12,22.6850702097103
148,26.0
149,0.0
248,0.0
2,5, 7, 5, 0, 3, 0.00,60.00,Tuesday
7,20.091666666666665
8,0.0
9,0.0
10,0.0
12,22.500572594207927
148,26.0
149,0.0
248,0.0
2,5, 7, 5, 0, 4, 0.00,60.00,Tuesday
7,19.508333333333336
8,0.0
9,0.0
10,0.0
12,22.294178234637315
148,26.0
149,0.0
248,0.0
2,5, 7, 5, 0, 5, 0.00,60.00,Tuesday
7,18.89166666666667
8,4.166666666666667
9,37.666666666666664
10,0.0
12,22.09295462342057
148,26.0
149,0.0
248,0.0
2,5, 7, 5, 0, 6, 0.00,60.00,Tuesday
7,18.25
8,29.75
9,263.3333333333333
10,0.0
12,21.968124187678644
148,26.0
149,0.0
248,0.0
2,5, 7, 5, 0, 7, 0.00,60.00,Tuesday
7,18.99166666666667
8,66.41666666666667
9,553.9166666666666
10,0.0
12,21.87900396109144
148,26.0
149,0.0
248,0.0
2,5, 7, 5, 0, 8, 0.00,60.00,Tuesday
7,20.866666666666667
8,91.58333333333333
9,675.6666666666666
10,0.0
12,21.916868657440773
148,26.0
149,0.0
248,0.0
2,5, 7, 5, 0, 9, 0.00,60.00,Tuesday
7,24.441666666666666
8,123.08333333333333
9,712.9166666666666
10,0.0
12,20.919624554215858
148,21.0
149,0.0
248,235.3223128529522
2,5, 7, 5, 0,10, 0.00,60.00,Tuesday
7,28.150000000000002
8,189.83333333333334
9,641.3333333333334
10,0.0
12,20.999999997113516
148,21.0
149,0.0
248,231.74375965831132
2,5, 7, 5, 0,11, 0.00,60.00,Tuesday
7,28.991666666666664
8,322.25
9,433.4166666666667
10,0.0
12,21.474228938561208
148,21.5
149,0.0
248,144.29192613388534
2,5, 7, 5, 0,12, 0.00,60.00,Tuesday
7,30.333333333333332
8,458.75
9,200.08333333333334
10,3.0
12,21.499999999998682
148,21.5
149,0.9999999999999999
248,235.16986018647424
2,5, 7, 5, 0,13, 0.00,60.00,Tuesday
7,31.208333333333332
8,497.3333333333333
9,115.58333333333333
10,3.0
12,19.990732203522942
148,20.0
149,0.9999999999999999
248,669.3111505486398
2,5, 7, 5, 0,14, 0.00,60.00,Tuesday
7,30.88333333333334
8,487.1666666666667
9,85.5
10,3.0
12,19.9999999999856
148,20.0
149,0.9999999999999999
248,603.9884814126648
2,5, 7, 5, 0,15, 0.00,60.00,Tuesday
7,31.383333333333336
8,446.3333333333333
9,114.66666666666667
10,3.0
12,20.0
148,20.0
149,0.9999999999999999
248,605.9100176350812
2,5, 7, 5, 0,16, 0.00,60.00,Tuesday
7,32.733333333333334
8,361.9166666666667
9,240.41666666666666
10,3.0
12,20.0
148,20.0
149,0.9999999999999999
248,626.4588090697947
2,5, 7, 5, 0,17, 0.00,60.00,Tuesday
7,32.93333333333333
8,264.1666666666667
9,336.6666666666667
10,3.0
12,20.0
148,20.0
149,0.9999999999999999
248,692.023637277501
2,5, 7, 5, 0,18, 0.00,60.00,Tuesday
7,32.13333333333334
8,167.83333333333334
9,431.0
10,0.0
12,20.0
148,20.0
149,0.0
248,767.1324786858804
2,5, 7, 5, 0,19, 0.00,60.00,Tuesday
7,31.916666666666668
8,101.33333333333333
9,416.1666666666667
10,0.0
12,22.673694234327343
148,25.0
149,0.0
248,0.0
2,5, 7, 5, 0,20, 0.00,60.00,Tuesday
7,31.708333333333332
8,54.833333333333336
9,152.25
10,0.0
12,24.065969886590494
148,25.0
149,0.0
248,0.0
2,5, 7, 5, 0,21, 0.00,60.00,Tuesday
7,30.50833333333334
8,0.0
9,0.0
10,0.0
12,23.96975093485248
148,25.0
149,0.0
248,0.0
2,5, 7, 5, 0,22, 0.00,60.00,Tuesday
7,27.46666666666667
8,0.0
9,0.0
10,0.0
12,23.860754331781035
148,25.0
149,0.0
248,0.0
2,5, 7, 5, 0,23, 0.00,60.00,Tuesday
7,24.633333333333336
8,0.0
9,0.0
10,0.0
12,23.72500713481179
148,25.0
149,0.0
248,0.0
2,5, 7, 5, 0,24, 0.00,60.00,Tuesday
7,23.15833333333333
8,0.0
9,0.0
10,0.0
12,23.564553518189154
148,25.0
149,0.0
248,0.0
2,6, 7, 6, 0, 1, 0.00,60.00,Wednesday
7,22.233333333333334
8,0.0
9,0.0
10,0.0
12,23.378306167646556
148,26.0
149,0.0
248,0.0
2,6, 7, 6, 0, 2, 0.00,60.00,Wednesday
7,21.433333333333337
8,0.0
9,0.0
10,0.0
12,23.161701387841802
148,26.0
149,0.0
248,0.0
2,6, 7, 6, 0, 3, 0.00,60.00,Wednesday
7,20.925000000000004
8,0.0
9,0.0
10,0.0
12,22.920318988482425
148,26.0
149,0.0
248,0.0
2,6, 7, 6, 0, 4, 0.00,60.00,Wednesday
7,20.625
8,0.0
9,0.0
10,0.0
12,22.66771557813314
148,26.0
149,0.0
248,0.0
2,6, 7, 6, 0, 5, 0.00,60.00,Wednesday
7,20.26666666666667
8,3.9999999999999996
9,39.33333333333333
10,0.0
12,22.42197416008115
148,26.0
149,0.0
248,0.0
2,6, 7, 6, 0, 6, 0.00,60.00,Wednesday
7,19.983333333333334
8,28.333333333333332
9,283.6666666666667
10,0.0
12,22.262867170739117
148,26.0
149,0.0
248,0.0
2,6, 7, 6, 0, 7, 0.00,60.00,Wednesday
7,20.658333333333335
8,65.5
9,619.5
10,0.0
12,22.1434606607462
148,26.0
149,0.0
248,0.0
2,6, 7, 6, 0, 8, 0.00,60.00,Wednesday
7,22.425
8,105.0
9,722.0833333333334
10,0.0
12,22.177320589433815
148,26.0
149,0.0
248,0.0
2,6, 7, 6, 0, 9, 0.00,60.00,Wednesday
7,25.925
8,142.16666666666666
9,779.3333333333334
10,0.0
12,20.883593227445317
148,21.0
149,0.0
248,290.0662028937857
2,6, 7, 6, 0,10, 0.00,60.00,Wednesday
7,30.016666666666666
8,172.33333333333334
9,821.75
10,0.0
12,20.999999996098328
148,21.0
149,0.0
248,286.3102674492209
2,6, 7, 6, 0,11, 0.00,60.00,Wednesday
7,32.125
8,189.5
9,852.6666666666666
10,0.0
12,21.47888303640109
148,21.5
149,0.0
248,200.6539840268464
2,6, 7, 6, 0,12, 0.00,60.00,Wednesday
7,32.73333333333334
8,188.33333333333334
9,867.0
10,3.0
12,21.49999999999879
148,21.5
149,0.9999999999999999
248,270.07223387493354
2,6, 7, 6, 0,13, 0.00,60.00,Wednesday
7,33.25
8,190.08333333333334
9,786.6666666666666
10,3.0
12,19.9916959205066
148,20.0
149,0.9999999999999999
248,676.9491376071992
2,6, 7, 6, 0,14, 0.00,60.00,Wednesday
7,34.375
8,350.9166666666667
9,443.0
10,3.0
12,19.999999999982858
148,20.0
149,0.9999999999999999
248,633.61787809908
2,6, 7, 6, 0,15, 0.00,60.00,Wednesday
7,35.35
8,413.5
9,245.25
10,3.0
12,20.000000000000004
148,20.0
149,0.9999999999999999
248,679.1167510994785
2,6, 7, 6, 0,16, 0.00,60.00,Wednesday
7,35.36666666666667
8,329.3333333333333
9,333.0
10,3.0
12,19.999999999999996
148,20.0
149,0.9999999999999999
248,713.0328687673972
2,6, 7, 6, 0,17, 0.00,60.00,Wednesday
7,35.25833333333333
8,222.25
9,453.0
10,3.0
12,19.999999999999996
148,20.0
149,0.9999999999999999
248,791.5907609084007
2,6, 7, 6, 0,18, 0.00,60.00,Wednesday
7,35.008333333333326
8,172.83333333333334
9,399.5833333333333
10,0.0
12,20.0
148,20.0
149,0.0
248,891.7315763212204
2,6, 7, 6, 0,19, 0.00,60.00,Wednesday
7,34.508333333333326
8,124.5
9,276.5
10,0.0
12,22.77506754507911
148,25.0
149,0.0
248,0.0
2,6, 7, 6, 0,20, 0.00,60.00,Wednesday
7,34.00833333333333
8,49.583333333333336
9,91.6111111111111
10,0.0
12,24.604912052016545
148,25.0
149,0.0
248,0.0
2,6, 7, 6, 0,21, 0.00,60.00,Wednesday
7,32.925000000000004
8,0.0
9,0.0
10,0.0
12,24.639252277568104
148,25.0
149,0.0
248,0.0
2,6, 7, 6, 0,22, 0.00,60.00,Wednesday
7,30.258333333333336
8,0.0
9,0.0
10,0.0
12,24.61088247158655
148,25.0
149,0.0
248,0.0
2,6, 7, 6, 0,23, 0.00,60.00,Wednesday
7,27.75
8,0.0
9,0.0
10,0.0
12,24.52174140510066
148,25.0
149,0.0
248,0.0
2,6, 7, 6, 0,24, 0.00,60.00,Wednesday
7,26.474999999999998
8,0.0
9,0.0
10,0.0
12,24.40635373662887
148,25.0
149,0.0
248,0.0
2,7, 7, 7, 0, 1, 0.00,60.00,Thursday
7,25.691666666666666
8,0.0
9,0.0
10,0.0
12,24.270784986740267
148,26.0
149,0.0
248,0.0
2,7, 7, 7, 0, 2, 0.00,60.00,Thursday
7,25.05
8,0.0
9,0.0
10,0.0
12,24.11374882857922
148,26.0
149,0.0
248,0.0
2,7, 7, 7, 0, 3, 0.00,60.00,Thursday
7,24.683333333333337
8,0.0
9,0.0
10,0.0
12,23.940695702651272
148,26.0
149,0.0
248,0.0
2,7, 7, 7, 0, 4, 0.00,60.00,Thursday
7,24.01666666666667
8,0.0
9,0.0
10,0.0
12,23.721243729291384
148,26.0
149,0.0
248,0.0
2,7, 7, 7, 0, 5, 0.00,60.00,Thursday
7,23.25
8,4.999999999999999
9,33.666666666666664
10,0.0
12,23.491409673135298
148,26.0
149,0.0
248,0.0
2,7, 7, 7, 0, 6, 0.00,60.00,Thursday
7,22.825000000000003
8,35.833333333333336
9,227.66666666666666
10,0.0
12,23.340996496231828
148,26.0
149,0.0
248,0.0
2,7, 7, 7, 0, 7, 0.00,60.00,Thursday
7,23.75
8,93.33333333333333
9,401.75
10,0.0
12,23.24653314034846
148,26.0
149,0.0
248,0.0
2,7, 7, 7, 0, 8, 0.00,60.00,Thursday
7,25.725000000000005
8,190.25
9,267.3333333333333
10,0.0
12,23.297278202186956
148,26.0
149,0.0
248,0.0
2,7, 7, 7, 0, 9, 0.00,60.00,Thursday
7,28.991666666666664
8,249.0
9,302.3333333333333
10,0.0
12,20.877180810209346
148,21.0
149,0.0
248,586.615554138017
2,7, 7, 7, 0,10, 0.00,60.00,Thursday
7,32.56666666666667
8,188.0
9,625.6666666666666
10,0.0
12,20.99999999883287
148,21.0
149,0.0
248,476.8496837395585
2,7, 7, 7, 0,11, 0.00,60.00,Thursday
7,34.541666666666664
8,143.08333333333334
9,818.6666666666666
10,0.0
12,21.489482244697864
148,21.5
149,0.0
248,355.3984936071062
2,7, 7, 7, 0,12, 0.00,60.00,Thursday
7,35.699999999999996
8,193.66666666666666
9,753.0
10,3.0
12,21.49999999996524
148,21.5
149,0.9999999999999999
248,402.8697590957493
2,7, 7, 7, 0,13, 0.00,60.00,Thursday
7,36.550000000000004
8,376.0833333333333
9,395.8333333333333
10,3.0
12,19.99980500818864
148,20.0
149,0.9999999999999999
248,854.2079764833451
2,7, 7, 7, 0,14, 0.00,60.00,Thursday
7,37.324999999999996
8,469.3333333333333
9,94.91666666666667
10,3.0
12,19.999999999986464
148,20.0
149,0.9999999999999999
248,799.3022337035771
2,7, 7, 7, 0,15, 0.00,60.00,Thursday
7,37.233333333333334
8,423.9166666666667
9,38.083333333333336
10,3.0
12,20.0
148,20.0
149,0.9999999999999999
248,806.1778299305483
2,7, 7, 7, 0,16, 0.00,60.00,Thursday
7,36.49166666666667
8,360.9166666666667
9,32.0
10,3.0
12,20.0
148,20.0
149,0.9999999999999999
248,811.8149755053754
2,7, 7, 7, 0,17, 0.00,60.00,Thursday
7,36.608333333333334
8,260.1666666666667
9,16.166666666666668
10,3.0
12,20.0
148,20.0
149,0.9999999999999999
248,814.391036656677
2,7, 7, 7, 0,18, 0.00,60.00,Thursday
7,36.199999999999996
8,142.08333333333334
9,3.8333333333333326
10,0.0
12,20.0
148,20.0
149,0.0
248,785.8047253195078
2,7, 7, 7, 0,19, 0.00,60.00,Thursday
7,35.175000000000004
8,59.083333333333336
9,1.0
10,0.0
12,22.467646901075298
148,25.0
149,0.0
248,0.0
2,7, 7, 7, 0,20, 0.00,60.00,Thursday
7,30.48333333333333
8,13.833333333333334
9,0.08333333333333331
10,0.0
12,23.59060390435542
148,25.0
149,0.0
248,0.0
2,7, 7, 7, 0,21, 0.00,60.00,Thursday
7,23.433333333333337
8,0.0
9,0.0
10,0.0
12,23.766462804737643
148,25.0
149,0.0
248,0.0
2,7, 7, 7, 0,22, 0.00,60.00,Thursday
7,19.84166666666667
8,0.0
9,0.0
10,0.0
12,23.75985517878951
148,25.0
149,0.0
248,0.0
2,7, 7, 7, 0,23, 0.00,60.00,Thursday
7,19.241666666666667
8,0.0
9,0.0
10,0.0
12,23.712551742202745
148,25.0
149,0.0
248,0.0
2,7, 7, 7, 0,24, 0.00,60.00,Thursday
7,19.141666666666666
8,0.0
9,0.0
10,0.0
12,23.61904625830365
148,25.0
149,0.0
248,0.0
2,8, 7, 8, 0, 1, 0.00,60.00,Friday
7,19.099999999999998
8,0.0
9,0.0
10,0.0
12,23.474683405763432
148,26.0
149,0.0
248,0.0
2,8, 7, 8, 0, 2, 0.00,60.00,Friday
7,19.099999999999998
8,0.0
9,0.0
10,0.0
12,23.294255949854172
148,26.0
149,0.0
248,0.0
2,8, 7, 8, 0, 3, 0.00,60.00,Friday
7,19.041666666666668
8,0.0
9,0.0
10,0.0
12,23.0846233337289
148,26.0
149,0.0
248,0.0
2,8, 7, 8, 0, 4, 0.00,60.00,Friday
7,18.883333333333333
8,0.0
9,0.0
10,0.0
12,22.850131480857982
148,26.0
149,0.0
248,0.0
2,8, 7, 8, 0, 5, 0.00,60.00,Friday
7,18.45
8,4.999999999999999
9,41.49999999999999
10,0.0
12,22.62240463907816
148,26.0
149,0.0
248,0.0
2,8, 7, 8, 0, 6, 0.00,60.00,Friday
7,17.733333333333334
8,34.166666666666664
9,294.4166666666667
10,0.0
12,22.440563969603897
148,26.0
149,0.0
248,0.0
2,8, 7, 8, 0, 7, 0.00,60.00,Friday
7,17.866666666666664
8,72.16666666666667
9,624.9166666666666
10,0.0
12,22.241064179065603
148,26.0
149,0.0
248,0.0
2,8, 7, 8, 0, 8, 0.00,60.00,Friday
7,19.308333333333334
8,102.75
9,721.8333333333334
10,0.0
12,22.24424583810715
148,26.0
149,0.0
248,0.0
2,8, 7, 8, 0, 9, 0.00,60.00,Friday
7,21.733333333333334
8,117.41666666666667
9,776.5833333333334
10,0.0
12,20.885455212961755
148,21.0
149,0.0
248,295.4148664826319
2,8, 7, 8, 0,10, 0.00,60.00,Friday
7,24.00833333333333
8,149.83333333333334
9,749.4166666666666
10,0.0
12,20.999999996529173
148,21.0
149,0.0
248,251.1362356035024
2,8, 7, 8, 0,11, 0.00,60.00,Friday
7,25.558333333333337
8,304.4166666666667
9,470.1666666666667
10,0.0
12,21.475294996407893
148,21.5
149,0.0
248,148.88485307758705
2,8, 7, 8, 0,12, 0.00,60.00,Friday
7,26.625
8,447.9166666666667
9,229.5
10,3.0
12,21.49999999999942
148,21.5
149,0.9999999999999999
248,232.36147402098223
2,8, 7, 8, 0,13, 0.00,60.00,Friday
7,27.641666666666666
8,485.3333333333333
9,174.25
10,3.0
12,19.99033044443127
148,20.0
149,0.9999999999999999
248,660.3308983161777
2,8, 7, 8, 0,14, 0.00,60.00,Friday
7,28.041666666666668
8,460.9166666666667
9,209.41666666666666
10,3.0
12,19.99999999998748
148,20.0
149,0.9999999999999999
248,591.9105481554178
2,8, 7, 8, 0,15, 0.00,60.00,Friday
7,28.875
8,352.5
9,387.0833333333333
10,3.0
12,20.0
148,20.0
149,0.9999999999999999
248,580.6401097070678
2,8, 7, 8, 0,16, 0.00,60.00,Friday
7,28.916666666666668
8,240.33333333333334
9,537.0833333333334
10,3.0
12,20.0
148,20.0
149,0.9999999999999999
248,571.2935407906448
2,8, 7, 8, 0,17, 0.00,60.00,Friday
7,28.558333333333337
8,205.0
9,497.75
10,3.0
12,20.0
148,20.0
149,0.9999999999999999
248,619.5870227838585
2,8, 7, 8, 0,18, 0.00,60.00,Friday
7,28.133333333333336
8,159.58333333333334
9,451.0
10,0.0
12,20.000000000000004
148,20.0
149,0.0
248,706.8330731593957
2,8, 7, 8, 0,19, 0.00,60.00,Friday
7,27.625
8,110.33333333333333
9,358.0
10,0.0
12,22.507846469058155
148,25.0
149,0.0
248,0.0
2,8, 7, 8, 0,20, 0.00,60.00,Friday
7,27.266666666666666
8,47.05555555555555
9,121.27777777777777
10,0.0
12,23.869501019293065
148,25.0
149,0.0
248,0.0
2,8, 7, 8, 0,21, 0.00,60.00,Friday
7,25.991666666666664
8,0.0
9,0.0
10,0.0
12,23.73464997849449
148,25.0
149,0.0
248,0.0
2,8, 7, 8, 0,22, 0.00,60.00,Friday
7,23.625
8,0.0
9,0.0
10,0.0
12,23.600892130497495
148,25.0
149,0.0
248,0.0
2,8, 7, 8, 0,23, 0.00,60.00,Friday
7,21.625
8,0.0
9,0.0
10,0.0
12,23.472930697617283
148,25.0
149,0.0
248,0.0
2,8, 7, 8, 0,24, 0.00,60.00,Friday
7,20.183333333333334
8,0.0
9,0.0
10,0.0
12,23.320973259456633
148,25.0
149,0.0
248,0.0
2,9, 7, 9, 0, 1, 0.00,60.00,Saturday
7,19.075
8,0.0
9,0.0
10,0.0
12,21.876636462395194
148,22.0
149,0.0
248,244.89076800695963
2,9, 7, 9, 0, 2, 0.00,60.00,Saturday
7,18.175
8,0.0
9,0.0
10,0.0
12,21.9999999995118
148,22.0
149,0.0
248,127.53719427999532
2,9, 7, 9, 0, 3, 0.00,60.00,Saturday
7,17.508333333333333
8,0.0
9,0.0
10,0.0
12,22.0
148,22.0
149,0.0
248,67.48610319888526
2,9, 7, 9, 0, 4, 0.00,60.00,Saturday
7,17.066666666666666
8,0.0
9,0.0
10,0.0
12,21.994422270347105
148,22.0
149,0.0
248,14.434744999809519
2,9, 7, 9, 0, 5, 0.00,60.00,Saturday
7,16.608333333333334
8,3.6666666666666665
9,36.49999999999999
10,0.0
12,21.857355361106784
148,22.0
149,0.0
248,0.0
2,9, 7, 9, 0, 6, 0.00,60.00,Saturday
7,16.516666666666666
8,26.333333333333332
9,269.9166666666667
10,0.0
12,21.72804398297914
148,22.0
149,0.0
248,0.0
2,9, 7, 9, 0, 7, 0.00,60.00,Saturday
7,17.241666666666667
8,64.08333333333333
9,613.25
10,0.0
12,21.64929134716938
148,22.0
149,0.0
248,0.0
2,9, 7, 9, 0, 8, 0.00,60.00,Saturday
7,19.041666666666668
8,111.58333333333333
9,719.25
10,0.0
12,21.74285800360204
148,22.0
149,0.0
248,0.0
2,9, 7, 9, 0, 9, 0.00,60.00,Saturday
7,22.21666666666667
8,155.33333333333334
9,774.5833333333334
10,0.0
12,21.952476852547807
148,22.0
149,0.0
248,5.12480728076513
2,9, 7, 9, 0,10, 0.00,60.00,Saturday
7,25.200000000000003
8,177.58333333333334
9,818.25
10,0.0
12,21.99999999993041
148,22.0
149,0.0
248,43.118653457401045
2,9, 7, 9, 0,11, 0.00,60.00,Saturday
7,27.075